LAMMPS

62500 atoms

1 atom types

0 25 xlo xhi
0 25 ylo yhi
0 25 zlo zhi

Masses

1 1.000000

Atoms

1 1 9.421982476e-01 7.673218767e-01 6.974051127e-01
2 1 5.272716445e-01 9.916641608e-01 4.054319732e-01
3 1 5.192624596e-01 1.726004776e-01 5.444052029e-01
4 1 8.319218185e-01 6.283334401e-01 3.048698925e-01
5 1 1.118368904e+00 1.333762912e-01 1.301496214e-01
6 1 1.924220274e+00 6.675969155e-02 6.875728454e-01
7 1 1.925204111e+00 4.808125169e-02 6.924520156e-01
8 1 1.351807900e+00 6.063295969e-01 7.448503209e-01
9 1 2.163026569e+00 7.924164543e-01 1.944012013e-01
10 1 2.005634562e+00 6.168130411e-02 5.787347317e-01
11 1 2.266171007e+00 3.496810470e-02 7.772340524e-01
12 1 2.006360577e+00 1.547909572e-01 1.966928388e-01
13 1 3.725840433e+00 1.564278973e-01 8.515391505e-01
14 1 3.200131847e+00 7.442686336e-01 9.923595075e-01
15 1 3.799339764e+00 9.279388689e-01 9.845644365e-01
16 1 3.525994357e+00 9.184013586e-01 4.802157287e-01
17 1 4.207337172e+00 9.206142088e-01 5.574903620e-01
18 1 4.438088604e+00 7.323633670e-01 3.245010740e-02
19 1 4.923537721e+00 6.693858860e-01 9.498926225e-01
20 1 4.588846963e+00 7.572521109e-02 1.627774924e-01
21 1 5.886565750e+00 5.187328980e-01 3.376469278e-02
22 1 5.348051334e+00 4.455048288e-01 5.882463855e-01
23 1 5.147194382e+00 2.510641833e-01 8.790315992e-01
24 1 5.050689568e+00 9.897509762e-01 9.507140360e-01
25 1 6.074847275e+00 8.030062717e-01 2.394815623e-01
26 1 6.919665881e+00 9.935903563e-02 5.324555067e-01
27 1 6.548123911e+00 2.989946135e-01 7.162192388e-01
28 1 6.772484788e+00 6.854937243e-01 2.205842818e-02
29 1 7.118777641e+00 6.511985199e-02 9.453365372e-01
30 1 7.773016318e+00 1.948033848e-01 7.850196032e-02
31 1 7.908657036e+00 8.140005238e-02 9.574038033e-01
32 1 7.298130399e+00 4.901004819e-01 4.271194461e-01
33 1 8.955143335e+00 3.916002951e-01 9.152171371e-01
34 1 8.574367737e+00 3.791554397e-01 1.392874105e-01
35 1 8.625853613e+00 2.531947859e-01 1.042817858e-01
36 1 8.934754573e+00 3.638549396e-01 5.454394390e-01
37 1 9.601262237e+00 9.209980867e-01 5.418826481e-01
38 1 9.496602350e+00 5.847278663e-01 6.782128861e-01
39 1 9.072013366e+00 7.248767876e-01 2.409162734e-01
40 1 9.733798370e+00 4.907179120e-01 7.575229109e-01
41 1 1.042798862e+01 6.273187409e-01 5.281371929e-01
42 1 1.017590746e+01 1.927235021e-01 4.539186940e-01
43 1 1.091617814e+01 5.135879557e-01 7.125251663e-01
44 1 1.075178189e+01 4.301221578e-01 6.548523026e-01
45 1 1.136798272e+01 2.235355025e-01 8.345996475e-01
46 1 1.132348696e+01 4.468222053e-01 3.543285364e-01
47 1 1.196074055e+01 2.718593838e-01 5.002087381e-01
48 1 1.165269700e+01 8.934729211e-01 3.075994257e-01
49 1 1.204459218e+01 2.179421903e-01 2.031391893e-02
50 1 1.242963303e+01 5.530207580e-01 6.487357361e-01
51 1 1.289463489e+01 6.670082793e-01 9.362984120e-01
52 1 1.267017205e+01 5.272832894e-01 1.553795724e-01
53 1 1.332454532e+01 3.364833522e-01 9.595796206e-01
54 1 1.356075710e+01 9.289350807e-01 7.921693522e-01
55 1 1.337893195e+01 9.189163987e-01 7.572041149e-01
56 1 1.374447616e+01 2.073634765e-01 7.534598007e-02
57 1 1.453430817e+01 3.888687027e-01 5.989349352e-01
58 1 1.432340602e+01 8.531008414e-01 5.630464565e-01
59 1 1.416677852e+01 2.929956822e-01 3.111989448e-01
60 1 1.459045209e+01 1.256543144e-01 6.625455174e-01
61 1 1.592663270e+01 7.446800022e-01 6.990601636e-01
62 1 1.503405678e+01 4.093217040e-01 3.548585818e-01
63 1 1.578026118e+01 2.137168211e-01 4.233572998e-02
64 1 1.557022484e+01 3.546741397e-01 2.866569739e-01
65 1 1.665013524e+01 8.779427486e-01 5.459900064e-01
66 1 1.641446536e+01 8.938091577e-01 4.581930636e-01
67 1 1.644354118e+01 4.563460550e-01 3.260968780e-01
68 1 1.619140315e+01 7.437673515e-01 6.836712211e-01
69 1 1.702781778e+01 7.956679289e-01 8.770088915e-01
70 1 1.716164511e+01 6.434421989e-01 1.122792089e-01
71 1 1.710815403e+01 5.744001463e-01 3.676898116e-01
72 1 1.700886745e+01 9.795416549e-01 7.520094234e-01
73 1 1.800260944e+01 8.758870093e-02 4.266718281e-01
74 1 1.865552082e+01 4.831371919e-02 5.512838111e-01
75 1 1.853868843e+01 5.043394218e-01 5.729326944e-01
76 1 1.874877271e+01 5.607657110e-04 5.743631407e-01
77 1 1.990238784e+01 9.910509668e-01 2.914946571e-01
78 1 1.970216721e+01 6.592374961e-01 5.657566165e-04
79 1 1.942818550e+01 2.851709025e-01 1.209076955e-01
80 1 1.979853176e+01 1.144700341e-01 5.129210851e-01
81 1 2.048148479e+01 9.137797264e-01 3.583884078e-01
82 1 2.016571442e+01 6.041895482e-01 7.148698404e-01
83 1 2.056716136e+01 8.160166925e-01 7.579027826e-01
84 1 2.005457422e+01 8.130772143e-01 3.387819749e-01
85 1 2.123647742e+01 7.896000533e-01 7.291516210e-01
86 1 2.119210553e+01 6.933670386e-01 7.531539321e-01
87 1 2.175301915e+01 4.709952844e-01 9.710048375e-01
88 1 2.157204424e+01 1.005875273e-01 7.424232986e-01
89 1 2.292656386e+01 7.105385849e-01 5.304427883e-02
90 1 2.243074824e+01 6.945177912e-01 8.648430383e-01
91 1 2.271586896e+01 7.321506427e-01 3.108360913e-01
92 1 2.240078023e+01 4.724037448e-01 9.408905317e-01
93 1 2.379772137e+01 5.450698113e-01 2.496983415e-01
94 1 2.380776569e+01 9.112136752e-01 9.294238875e-01
95 1 2.327273715e+01 9.620828355e-01 7.293867985e-01
96 1 2.309931100e+01 5.636055242e-01 3.836767943e-01
97 1 2.473495037e+01 1.208058122e-01 4.800714101e-01
98 1 2.435933233e+01 7.335699411e-01 2.676331455e-02
99 1 2.432332259e+01 3.075787906e-01 8.294686459e-01
100 1 2.496802907e+01 7.863349698e-01 7.229679973e-01
101 1 2.532641444e-01 1.450932278e+00 5.425216683e-01
102 1 8.748787124e-01 1.624446414e+00 4.858473731e-01
103 1 4.214063446e-01 1.264461041e+00 2.043840771e-02
104 1 4.828199552e-01 1.356089305e+00 6.260217726e-01
105 1 1.894353965e+00 1.288337674e+00 5.456040452e-01
106 1 1.342543725e+00 1.613599444e+00 8.527188851e-02
107 1 1.186534616e+00 1.384465940e+00 9.885265314e-01
108 1 1.533856367e+00 1.420876910e+00 1.991476833e-01
109 1 2.574571733e+00 1.093496365e+00 2.078194457e-01
110 1 2.733875232e+00 1.376471723e+00 4.819003020e-01
111 1 2.461478034e+00 1.586966360e+00 5.091337686e-01
112 1 2.803913526e+00 1.638928306e+00 3.161945793e-01
113 1 3.709970834e+00 1.431048238e+00 6.241229991e-01
114 1 3.905565521e+00 1.530435798e+00 4.844912015e-01
115 1 3.102029214e+00 1.702798037e+00 2.220225304e-01
116 1 3.378460943e+00 1.675188270e+00 1.286174958e-01
117 1 4.321210139e+00 1.442802279e+00 7.639387006e-01
118 1 4.497272869e+00 1.472784406e+00 4.179361208e-01
119 1 4.790136999e+00 1.546750651e+00 5.153565800e-01
120 1 4.441228794e+00 1.666558023e+00 1.885389435e-01
121 1 5.184034090e+00 1.297325526e+00 8.619884272e-01
122 1 5.819764168e+00 1.276165643e+00 3.889307313e-01
123 1 5.550757334e+00 1.905526387e+00 8.884599818e-02
124 1 5.253053651e+00 1.530455134e+00 8.155631451e-01
125 1 6.814383901e+00 1.151225407e+00 3.391533855e-01
126 1 6.468629728e+00 1.072722214e+00 9.595636494e-01
127 1 6.794584373e+00 1.533436496e+00 7.159663922e-01
128 1 6.043817495e+00 1.768206797e+00 2.613538467e-01
129 1 7.888807025e+00 1.158462084e+00 7.998166593e-01
130 1 7.204077342e+00 1.219096445e+00 4.005442396e-01
131 1 7.556000440e+00 1.863969318e+00 9.821199362e-01
132 1 7.137467822e+00 1.383230986e+00 9.422685569e-02
133 1 8.081154830e+00 1.678905744e+00 7.964534664e-01
134 1 8.207706157e+00 1.868098115e+00 5.948481925e-01
135 1 8.271657261e+00 1.427911744e+00 3.762229338e-01
136 1 8.797330375e+00 1.029689041e+00 9.903535322e-01
137 1 9.605208433e+00 1.917262495e+00 8.099288652e-01
138 1 9.960615985e+00 1.749356246e+00 1.683554379e-02
139 1 9.287364619e+00 1.568145614e+00 3.873693699e-01
140 1 9.144023956e+00 1.471435443e+00 3.225368551e-01
141 1 1.075016349e+01 1.342142260e+00 3.821699515e-01
142 1 1.003393145e+01 1.570644419e+00 6.541805273e-01
143 1 1.074661427e+01 1.848630836e+00 9.840182936e-01
144 1 1.065880820e+01 1.279842835e+00 6.533744397e-01
145 1 1.121185517e+01 1.765015842e+00 1.535090175e-01
146 1 1.108608772e+01 1.306288949e+00 7.044153067e-01
147 1 1.151011370e+01 1.533976608e+00 3.591519839e-01
148 1 1.167495695e+01 1.160975106e+00 9.069426626e-01
149 1 1.200621831e+01 1.132473677e+00 4.831348180e-01
150 1 1.230244093e+01 1.988531864e+00 9.295734665e-01
151 1 1.295296510e+01 1.837200980e+00 9.671596490e-01
152 1 1.243508814e+01 1.124434473e+00 1.725279918e-01
153 1 1.367298562e+01 1.505330488e+00 4.883406030e-01
154 1 1.339706660e+01 1.608283072e+00 7.281950316e-01
155 1 1.346814728e+01 1.521975213e+00 7.178960589e-02
156 1 1.353075477e+01 1.404080455e+00 6.351592087e-02
157 1 1.479067418e+01 1.755766779e+00 6.762002850e-01
158 1 1.400931722e+01 1.641887450e+00 6.265712155e-02
159 1 1.421227535e+01 1.437352371e+00 2.587538751e-01
160 1 1.416119763e+01 1.925393954e+00 1.141675130e-01
161 1 1.505109470e+01 1.095632019e+00 2.968226614e-01
162 1 1.530676105e+01 1.677158605e+00 9.140578294e-01
163 1 1.550348049e+01 1.124282083e+00 6.650534364e-01
164 1 1.527935731e+01 1.352302753e+00 4.832772490e-01
165 1 1.652193008e+01 1.295508525e+00 6.478488099e-01
166 1 1.634224155e+01 1.813608867e+00 3.295976234e-01
167 1 1.691264420e+01 1.465967377e+00 8.476075971e-01
168 1 1.619547762e+01 1.103965134e+00 9.449051619e-01
169 1 1.795574302e+01 1.185300612e+00 4.495258102e-01
170 1 1.736733831e+01 1.723802834e+00 3.006113567e-02
171 1 1.722307635e+01 1.148189970e+00 1.852919063e-01
172 1 1.731141079e+01 1.850125431e+00 1.696369560e-01
173 1 1.866897674e+01 1.612941809e+00 1.168593655e-01
174 1 1.892604167e+01 1.953976625e+00 2.194771366e-01
175 1 1.882883492e+01 1.137704978e+00 1.917015140e-01
176 1 1.809283998e+01 1.267867879e+00 3.307035740e-01
177 1 1.971616480e+01 1.404785789e+00 6.888723501e-01
178 1 1.986337859e+01 1.029146671e+00 7.132814038e-01
179 1 1.999055363e+01 1.414613353e+00 8.706046587e-01
180 1 1.920283236e+01 1.091946931e+00 5.536267439e-01
181 1 2.090223807e+01 1.321867413e+00 3.558091958e-01
182 1 2.088011515e+01 1.913124246e+00 1.670566699e-01
183 1 2.068582192e+01 1.535039699e+00 6.141503116e-01
184 1 2.051817038e+01 1.398766867e+00 5.348034217e-01
185 1 2.114610803e+01 1.328141043e+00 1.030856753e-01
186 1 2.147026809e+01 1.287071489e+00 4.023209008e-01
187 1 2.160754551e+01 1.342460089e+00 4.767448922e-01
188 1 2.171849418e+01 1.759383532e+00 6.161429650e-01
189 1 2.276083302e+01 1.685315108e+00 5.782063846e-01
190 1 2.206894926e+01 1.531331905e+00 7.928524746e-01
191 1 2.257297797e+01 1.244254450e+00 7.800940725e-01
192 1 2.290577229e+01 1.247264841e+00 7.728015959e-01
193 1 2.319749018e+01 1.317172305e+00 6.719416875e-02
194 1 2.336600941e+01 1.085920298e+00 3.030354491e-01
195 1 2.333260510e+01 1.180600539e+00 6.290765534e-01
196 1 2.390576010e+01 1.236187609e+00 6.971594219e-01
197 1 2.496538404e+01 1.311494934e+00 2.427928554e-01
198 1 2.465388184e+01 1.872892872e+00 5.764048028e-02
199 1 2.441177477e+01 1.845924654e+00 2.358875167e-01
200 1 2.452559164e+01 1.809571305e+00 6.709967707e-01
201 1 8.196497103e-01 2.219923535e+00 9.425365311e-01
202 1 1.492513370e-01 2.262309052e+00 8.668755408e-01
203 1 6.465584453e-01 2.995789703e+00 6.370961464e-01
204 1 5.986819585e-01 2.607053977e+00 4.897099992e-01
205 1 1.915270068e+00 2.931581257e+00 7.762073544e-01
206 1 1.443493200e+00 2.076306092e+00 4.743511417e-01
207 1 1.192057332e+00 2.196070495e+00 6.225285544e-01
208 1 1.117524622e+00 2.519438505e+00 5.311180280e-01
209 1 2.049864613e+00 2.999363436e+00 4.226679938e-01
210 1 2.735585782e+00 2.027577239e+00 9.285615504e-01
211 1 2.587022418e+00 2.364908776e+00 7.376845475e-01
212 1 2.659978163e+00 2.401799274e+00 6.302908355e-01
213 1 3.038240804e+00 2.783723853e+00 4.234719657e-01
214 1 3.146574165e+00 2.510164014e+00 5.347337550e-01
215 1 3.800356254e+00 2.735586848e+00 1.633277113e-01
216 1 3.140398795e+00 2.198282377e+00 8.821521946e-01
217 1 4.236393934e+00 2.866052526e+00 6.099321666e-01
218 1 4.028102857e+00 2.605072239e+00 6.818002583e-01
219 1 4.605715768e+00 2.393841159e+00 1.409828315e-01
220 1 4.286194350e+00 2.947037299e+00 7.883261840e-02
221 1 5.558855250e+00 2.319566686e+00 4.383420934e-01
222 1 5.166804686e+00 2.431937935e+00 1.550906942e-01
223 1 5.273290236e+00 2.418082018e+00 9.916661402e-02
224 1 5.518903469e+00 2.538550833e+00 2.143941223e-01
225 1 6.406830774e+00 2.115296555e+00 1.683489387e-01
226 1 6.334806345e+00 2.786898823e+00 1.165441305e-01
227 1 6.300563946e+00 2.256948594e+00 8.904948656e-01
228 1 6.434921485e+00 2.213893655e+00 2.230044972e-01
229 1 7.993788217e+00 2.137047271e+00 6.234473199e-01
230 1 7.574078598e+00 2.864333681e+00 4.222692328e-01
231 1 7.591419778e+00 2.483948643e+00 8.894990725e-01
232 1 7.779898994e+00 2.082519500e+00 3.313885687e-01
233 1 8.737976579e+00 2.073118731e+00 9.239463520e-01
234 1 8.768025357e+00 2.414814212e+00 6.933044422e-01
235 1 8.775894779e+00 2.456674908e+00 1.428382793e-01
236 1 8.005498358e+00 2.779469169e+00 5.157037005e-01
237 1 9.495894401e+00 2.376239743e+00 6.861577693e-01
238 1 9.291123188e+00 2.459223548e+00 9.462610216e-01
239 1 9.522491343e+00 2.398000122e+00 5.399257537e-01
240 1 9.859618968e+00 2.232016452e+00 4.038713813e-01
241 1 1.097637749e+01 2.946823188e+00 7.113938217e-01
242 1 1.051169139e+01 2.548530334e+00 1.144041595e-02
243 1 1.064074895e+01 2.875985003e+00 9.467048114e-01
244 1 1.039112586e+01 2.943388535e+00 5.409513284e-01
245 1 1.192852042e+01 2.480024570e+00 6.177049193e-02
246 1 1.191071708e+01 2.082036500e+00 1.461684248e-01
247 1 1.167602301e+01 2.931081323e+00 2.902184877e-01
248 1 1.142186123e+01 2.232155047e+00 8.578665988e-01
249 1 1.265720647e+01 2.681703845e+00 4.893904319e-01
250 1 1.231564548e+01 2.165972142e+00 3.163384125e-01
251 1 1.256592543e+01 2.619116740e+00 4.684742566e-01
252 1 1.212332528e+01 2.401781835e+00 4.002035699e-01
253 1 1.393613510e+01 2.952555435e+00 5.362929757e-01
254 1 1.322311592e+01 2.369322969e+00 9.228892064e-01
255 1 1.318707112e+01 2.441600126e+00 7.882569974e-01
256 1 1.327538932e+01 2.374487886e+00 7.117277868e-01
257 1 1.480476156e+01 2.113068458e+00 8.190171844e-02
258 1 1.421027079e+01 2.292749290e+00 8.754027996e-01
259 1 1.429201346e+01 2.103153691e+00 2.330128656e-01
260 1 1.490227757e+01 2.403334243e+00 2.820413502e-01
261 1 1.528931714e+01 2.568911740e+00 9.594566360e-01
262 1 1.529166647e+01 2.959294625e+00 9.720607452e-01
263 1 1.568796209e+01 2.097800445e+00 5.901581924e-01
264 1 1.582843782e+01 2.806617730e+00 7.515216944e-01
265 1 1.624963461e+01 2.373917239e+00 6.570391076e-01
266 1 1.650423688e+01 2.378061473e+00 2.805349927e-01
267 1 1.628830142e+01 2.320193035e+00 4.305866922e-01
268 1 1.687573077e+01 2.235341555e+00 2.611363380e-01
269 1 1.773915896e+01 2.815962856e+00 3.582645765e-01
270 1 1.776623020e+01 2.883500704e+00 8.399756181e-02
271 1 1.709882074e+01 2.366061194e+00 3.402140609e-01
272 1 1.715584856e+01 2.043620654e+00 1.800312377e-02
273 1 1.818213292e+01 2.163126199e+00 7.568301060e-01
274 1 1.807545711e+01 2.282079127e+00 4.625296529e-02
275 1 1.844311112e+01 2.589136891e+00 6.001639551e-01
276 1 1.888930347e+01 2.640722620e+00 1.345702023e-01
277 1 1.908724750e+01 2.942858508e+00 1.335219993e-01
278 1 1.942001398e+01 2.081980272e+00 5.191227657e-01
279 1 1.966362582e+01 2.413622732e+00 7.147934445e-01
280 1 1.946546679e+01 2.499272797e+00 5.649138320e-01
281 1 2.082250369e+01 2.123983486e+00 5.209566075e-01
282 1 2.071636073e+01 2.899881284e+00 6.360596810e-02
283 1 2.049953271e+01 2.046143543e+00 3.969119859e-02
284 1 2.044086833e+01 2.328394882e+00 7.431407519e-01
285 1 2.158779512e+01 2.949849436e+00 7.830940418e-01
286 1 2.110028381e+01 2.666961129e+00 8.371840015e-01
287 1 2.153008645e+01 2.143252592e+00 2.066582022e-01
288 1 2.115872399e+01 2.157276108e+00 4.875534906e-01
289 1 2.221390227e+01 2.402190677e+00 8.998262044e-01
290 1 2.232987865e+01 2.580111359e+00 2.256980515e-01
291 1 2.243702482e+01 2.824487559e+00 3.091779486e-01
292 1 2.253844422e+01 2.730673947e+00 5.690707417e-01
293 1 2.319159621e+01 2.727046191e+00 5.258852985e-01
294 1 2.361909017e+01 2.449496936e+00 9.459278147e-01
295 1 2.345611317e+01 2.256031884e+00 7.029300521e-01
296 1 2.372908884e+01 2.888610239e+00 6.346958851e-01
297 1 2.441615250e+01 2.369203579e+00 6.897724729e-01
298 1 2.463952095e+01 2.282337644e+00 9.033694966e-01
299 1 2.456352315e+01 2.580363801e+00 4.448752313e-01
300 1 2.458884676e+01 2.785697418e+00 5.444857819e-01
301 1 4.426670843e-01 3.939808404e+00 8.091827015e-01
302 1 5.770626246e-01 3.066389182e+00 1.629036665e-01
303 1 7.045790006e-01 3.706267614e+00 8.679617251e-01
304 1 8.833635936e-01 3.379797408e+00 8.798946716e-01
305 1 1.043564471e+00 3.845906234e+00 5.896925986e-01
306 1 1.700735494e+00 3.889309958e+00 2.197537528e-02
307 1 1.368841035e+00 3.106572250e+00 5.038353502e-01
308 1 1.821557043e+00 3.764287698e+00 4.515804927e-01
309 1 2.679146385e+00 3.728589022e+00 2.428003102e-01
310 1 2.980953284e+00 3.678485374e+00 1.154009942e-01
311 1 2.669267864e+00 3.458416507e+00 3.623712672e-02
312 1 2.862659095e+00 3.568275534e+00 1.887804173e-01
313 1 3.235911071e+00 3.336870042e+00 2.270683573e-01
314 1 3.057458478e+00 3.933738361e+00 9.834500700e-02
315 1 3.399670140e+00 3.715627105e+00 9.892974158e-01
316 1 3.398530563e+00 3.124199020e+00 8.698037142e-02
317 1 4.380964808e+00 3.751656707e+00 5.820600537e-01
318 1 4.702315903e+00 3.108435457e+00 9.103556590e-01
319 1 4.620049861e+00 3.555192509e+00 4.266320272e-01
320 1 4.217044468e+00 3.907089539e+00 7.655065415e-01
321 1 5.399519648e+00 3.523646278e+00 7.972237063e-01
322 1 5.113135982e+00 3.991936867e+00 5.450199905e-01
323 1 5.137102033e+00 3.364224807e+00 8.368815562e-01
324 1 5.055435905e+00 3.968257018e+00 1.304314112e-01
325 1 6.074788877e+00 3.265964202e+00 2.518650116e-01
326 1 6.562149429e+00 3.393301986e+00 2.131311853e-01
327 1 6.276100068e+00 3.180929881e+00 4.323370699e-01
328 1 6.277393522e+00 3.690107093e+00 5.884461141e-01
329 1 7.816181914e+00 3.143422926e+00 8.956554092e-01
330 1 7.028728956e+00 3.964596422e+00 9.447793903e-01
331 1 7.136040870e+00 3.001338343e+00 4.229153865e-01
332 1 7.041844739e+00 3.743319736e+00 4.859374934e-01
333 1 8.267007987e+00 3.436750902e+00 2.943241114e-01
334 1 8.483770782e+00 3.772476588e+00 9.417951632e-01
335 1 8.650253249e+00 3.268616184e+00 8.842328906e-01
336 1 8.277064891e+00 3.694571998e+00 1.797342888e-01
337 1 9.184325011e+00 3.343585893e+00 4.683516781e-01
338 1 9.965083031e+00 3.030640155e+00 5.824743998e-01
339 1 9.985360143e+00 3.674077366e+00 1.010648562e-01
340 1 9.949046719e+00 3.377151572e+00 2.806270977e-01
341 1 1.028481223e+01 3.052063679e+00 3.045587172e-01
342 1 1.085232524e+01 3.187097426e+00 7.092959109e-01
343 1 1.097486396e+01 3.449572782e+00 9.228023014e-01
344 1 1.008994905e+01 3.885350182e+00 4.616370280e-01
345 1 1.177960973e+01 3.111171083e+00 3.492987040e-01
346 1 1.163762971e+01 3.065632853e+00 4.476765719e-01
347 1 1.113087531e+01 3.915806198e+00 2.573219178e-01
348 1 1.144486037e+01 3.144449847e+00 6.506667861e-01
349 1 1.293574120e+01 3.665784886e+00 9.962072825e-01
350 1 1.277106110e+01 3.187934793e+00 7.954980921e-01
351 1 1.223194114e+01 3.196472232e+00 1.366153269e-01
352 1 1.206035936e+01 3.044903958e+00 1.132169326e-01
353 1 1.309128598e+01 3.258223090e+00 6.376509576e-01
354 1 1.349778047e+01 3.869667463e+00 2.679471725e-01
355 1 1.374926619e+01 3.172001010e+00 9.636390432e-01
356 1 1.310115351e+01 3.012313914e+00 7.165444693e-01
357 1 1.405615329e+01 3.008936082e+00 6.049652924e-01
358 1 1.449163247e+01 3.152733671e+00 6.849240102e-01
359 1 1.485591581e+01 3.927553903e+00 3.380061008e-01
360 1 1.425682155e+01 3.106936808e+00 2.705941219e-01
361 1 1.531040824e+01 3.689265686e+00 9.925848324e-01
362 1 1.553210296e+01 3.600022083e+00 7.268675215e-01
363 1 1.590965424e+01 3.762280315e+00 4.341217160e-01
364 1 1.590039285e+01 3.859291810e+00 4.768848812e-01
365 1 1.652098439e+01 3.354796994e+00 8.152648794e-01
366 1 1.682463084e+01 3.239273724e+00 9.381607640e-01
367 1 1.664421120e+01 3.473360893e+00 7.282367679e-01
368 1 1.699154338e+01 3.432566754e+00 3.867804055e-01
369 1 1.724069692e+01 3.330085031e+00 9.545982425e-01
370 1 1.748768136e+01 3.769869451e+00 3.825051938e-01
371 1 1.788008123e+01 3.844064200e+00 3.177355853e-01
372 1 1.712674612e+01 3.793856228e+00 9.343080865e-01
373 1 1.881125326e+01 3.736616622e+00 5.953177433e-01
374 1 1.801159522e+01 3.175214926e+00 9.249006670e-01
375 1 1.865594952e+01 3.666367578e+00 3.508741748e-01
376 1 1.853815816e+01 3.453836364e+00 3.272412440e-01
377 1 1.900006241e+01 3.245410090e+00 3.278995962e-01
378 1 1.945168878e+01 3.347997400e+00 7.846172092e-01
379 1 1.943285603e+01 3.505626434e+00 8.154867638e-01
380 1 1.930481858e+01 3.425491113e+00 9.339666176e-01
381 1 2.042724751e+01 3.705491367e+00 6.816927467e-01
382 1 2.012159896e+01 3.420017579e+00 4.326247131e-01
383 1 2.051525145e+01 3.427587690e+00 8.362519520e-01
384 1 2.094055058e+01 3.760617317e+00 7.486872863e-01
385 1 2.102347413e+01 3.716540570e+00 6.594506061e-01
386 1 2.136466299e+01 3.544253907e+00 3.482496897e-01
387 1 2.139175432e+01 3.658406666e+00 6.635644808e-02
388 1 2.106767748e+01 3.253866247e+00 6.984839502e-01
389 1 2.290266938e+01 3.000826990e+00 1.479190250e-01
390 1 2.292165758e+01 3.642590490e+00 4.039933483e-01
391 1 2.209776251e+01 3.491261855e+00 6.984340687e-01
392 1 2.258564398e+01 3.079291438e+00 9.078958372e-01
393 1 2.379187924e+01 3.208232078e+00 4.027320608e-02
394 1 2.382224618e+01 3.960043355e+00 1.189301537e-01
395 1 2.363124655e+01 3.585366338e+00 2.303810003e-01
396 1 2.393821970e+01 3.833740551e+00 4.144630636e-01
397 1 2.496281155e+01 3.089034942e+00 5.698343211e-01
398 1 2.437871390e+01 3.891520417e+00 1.855056962e-02
399 1 2.425961770e+01 3.128326130e+00 1.956769322e-01
400 1 2.476827675e+01 3.046373544e+00 4.888113213e-01
401 1 6.637539375e-01 4.258087708e+00 4.844017891e-01
402 1 1.896251200e-01 4.152453229e+00 3.114437051e-01
403 1 5.602290832e-01 4.408689990e+00 5.218486267e-01
404 1 2.198531397e-01 4.140519023e+00 3.287884143e-01
405 1 1.143368432e+00 4.475199475e+00 3.882773239e-01
406 1 1.615576450e+00 4.818232595e+00 6.869032389e-01
407 1 1.394368488e+00 4.258979484e+00 3.902220645e-01
408 1 1.706828808e+00 4.859262191e+00 1.313188306e-01
409 1 2.333660601e+00 4.549505698e+00 5.854387629e-01
410 1 2.291852830e+00 4.757290844e+00 9.521492894e-01
411 1 2.586862778e+00 4.949325097e+00 6.431674523e-01
412 1 2.629979700e+00 4.751061584e+00 5.167980493e-02
413 1 3.133436915e+00 4.490494314e+00 7.266889370e-01
414 1 3.322203948e+00 4.123518594e+00 9.174489439e-01
415 1 3.314938998e+00 4.452703774e+00 4.680254672e-01
416 1 3.154512536e+00 4.011511724e+00 8.662514104e-01
417 1 4.203462197e+00 4.919434146e+00 5.681787797e-01
418 1 4.734580904e+00 4.083667888e+00 2.914886757e-01
419 1 4.969882904e+00 4.167095686e+00 7.207811167e-01
420 1 4.175909927e+00 4.205481344e+00 3.466905314e-01
421 1 5.125731662e+00 4.023944927e+00 2.304354386e-02
422 1 5.452228886e+00 4.043569873e+00 2.644150273e-02
423 1 5.837827195e+00 4.487742708e+00 6.128422993e-01
424 1 5.911494299e+00 4.660598379e+00 4.940721494e-01
425 1 6.063021401e+00 4.481573975e+00 7.148810937e-01
426 1 6.376868214e+00 4.549283817e+00 6.592760348e-01
427 1 6.705880026e+00 4.452326202e+00 5.408291542e-01
428 1 6.493241182e+00 4.456692122e+00 3.817147765e-01
429 1 7.018397251e+00 4.122348402e+00 3.825296601e-01
430 1 7.934998711e+00 4.384912904e+00 3.352525199e-01
431 1 7.754428123e+00 4.944136202e+00 9.821538174e-01
432 1 7.474991226e+00 4.683723985e+00 4.118810128e-01
433 1 8.683837971e+00 4.764441843e+00 5.031108970e-01
434 1 8.850685033e+00 4.175067306e+00 2.022185795e-01
435 1 8.609290623e+00 4.958876749e+00 5.690406766e-01
436 1 8.526014758e+00 4.920600416e+00 2.973955724e-01
437 1 9.753595164e+00 4.842313760e+00 9.906053693e-01
438 1 9.686968416e+00 4.510587390e+00 9.620253287e-01
439 1 9.517961186e+00 4.053590481e+00 3.630459482e-01
440 1 9.091981394e+00 4.407013107e+00 6.171566823e-01
441 1 1.065004637e+01 4.222143554e+00 9.555067177e-01
442 1 1.056649343e+01 4.717541556e+00 2.749442865e-01
443 1 1.062379007e+01 4.486138496e+00 3.699246658e-01
444 1 1.001683258e+01 4.945410509e+00 1.413599508e-01
445 1 1.155332588e+01 4.385175931e+00 7.705698053e-01
446 1 1.149604785e+01 4.084374507e+00 2.642178986e-01
447 1 1.171287593e+01 4.769029019e+00 1.025151553e-02
448 1 1.150668300e+01 4.532505329e+00 4.032345471e-03
449 1 1.246032847e+01 4.653343329e+00 1.152557364e-01
450 1 1.230504126e+01 4.427383501e+00 5.241972339e-01
451 1 1.207756855e+01 4.092124083e+00 6.220170354e-01
452 1 1.288800195e+01 4.551621790e+00 3.201364054e-01
453 1 1.398499895e+01 4.000334727e+00 9.274731725e-01
454 1 1.396845532e+01 4.073616374e+00 3.867506836e-01
455 1 1.330307459e+01 4.673112573e+00 9.129319466e-01
456 1 1.372401024e+01 4.299702993e+00 4.714765929e-01
457 1 1.424851162e+01 4.315557832e+00 8.231998425e-01
458 1 1.435151812e+01 4.961337249e+00 9.386749856e-01
459 1 1.416107005e+01 4.653051557e+00 4.309475223e-01
460 1 1.406265132e+01 4.366160585e+00 7.157008402e-01
461 1 1.592627106e+01 4.679029040e+00 6.739301256e-01
462 1 1.504098014e+01 4.973560873e+00 3.017616127e-01
463 1 1.584101417e+01 4.616375481e+00 2.208432731e-01
464 1 1.583335528e+01 4.399768987e+00 9.855186611e-01
465 1 1.691811934e+01 4.285342286e+00 4.657192716e-01
466 1 1.667179687e+01 4.983065091e+00 5.489516462e-01
467 1 1.626169270e+01 4.382573150e+00 8.510915692e-01
468 1 1.605974377e+01 4.859026751e+00 6.559014411e-01
469 1 1.780737729e+01 4.311862356e+00 4.708924267e-01
470 1 1.701749168e+01 4.748198968e+00 5.269253771e-01
471 1 1.722575303e+01 4.729364826e+00 9.697215209e-02
472 1 1.778321510e+01 4.106776971e+00 1.238425999e-01
473 1 1.806050870e+01 4.155177579e+00 2.238482762e-01
474 1 1.822214068e+01 4.822662419e+00 2.236714611e-01
475 1 1.845297598e+01 4.017593644e+00 9.322909415e-02
476 1 1.809308542e+01 4.865878125e+00 9.047919214e-01
477 1 1.991947614e+01 4.705462956e+00 5.831729215e-01
478 1 1.921661193e+01 4.704746366e+00 7.142825772e-01
479 1 1.900390844e+01 4.013026302e+00 9.005180179e-02
480 1 1.917778215e+01 4.638690006e+00 4.644980002e-01
481 1 2.068851438e+01 4.415405450e+00 9.842563011e-01
482 1 2.049828379e+01 4.849439838e+00 9.281938511e-01
483 1 2.086514653e+01 4.682578366e+00 5.594360850e-01
484 1 2.085855982e+01 4.855913912e+00 7.864280788e-01
485 1 2.178159187e+01 4.505375408e+00 7.193473338e-01
486 1 2.169995863e+01 4.282587706e+00 2.255592574e-01
487 1 2.192886225e+01 4.506213951e+00 2.626421929e-01
488 1 2.126638236e+01 4.809441958e+00 4.804433823e-01
489 1 2.283741331e+01 4.261969126e+00 1.430801824e-02
490 1 2.267926290e+01 4.408008887e+00 4.376403303e-02
491 1 2.263828359e+01 4.353031929e+00 4.956828964e-01
492 1 2.253226290e+01 4.142174525e+00 6.916934829e-01
493 1 2.344193464e+01 4.392985268e+00 6.424708776e-01
494 1 2.397630395e+01 4.817497730e+00 9.204310108e-01
495 1 2.377010587e+01 4.848441895e+00 4.638416020e-03
496 1 2.361515841e+01 4.091989880e+00 7.507720089e-01
497 1 2.479209936e+01 4.864377612e+00 8.877530573e-01
498 1 2.453810221e+01 4.974123851e+00 3.950893837e-01
499 1 2.418159984e+01 4.900298222e+00 9.827908796e-01
500 1 2.486143472e+01 4.803589820e+00 7.011539369e-01
501 1 8.481014782e-01 5.171718902e+00 7.098083286e-01
502 1 1.852721046e-01 5.674633719e+00 8.780089307e-01
503 1 4.252147893e-01 5.372661183e+00 9.184274941e-01
504 1 1.376783193e-01 5.037079827e+00 9.611803650e-01
505 1 1.995040991e+00 5.802333387e+00 1.002205375e-01
506 1 1.392107665e+00 5.963115667e+00 9.400362221e-01
507 1 1.334952426e+00 5.850923632e+00 4.242694709e-01
508 1 1.175413342e+00 5.700896110e+00 7.797275008e-01
509 1 2.244926567e+00 5.075400828e+00 2.757770159e-01
510 1 2.246064315e+00 5.216617638e+00 4.089029634e-01
511 1 2.980240547e+00 5.234710115e+00 6.678949459e-02
512 1 2.482686503e+00 5.881898162e+00 1.339019691e-01
513 1 3.963064166e+00 5.646183415e+00 4.349244539e-02
514 1 3.236145177e+00 5.190939389e+00 8.679049812e-01
515 1 3.463948440e+00 5.475910909e+00 3.374847532e-01
516 1 3.899912774e+00 5.232631522e+00 9.302721696e-01
517 1 4.314702119e+00 5.550191299e+00 1.654761973e-02
518 1 4.600033677e+00 5.729255033e+00 8.106304589e-01
519 1 4.989830621e+00 5.516141926e+00 3.690791889e-01
520 1 4.859658688e+00 5.040906463e+00 8.607013032e-01
521 1 5.259624453e+00 5.181792922e+00 1.575356369e-01
522 1 5.782701624e+00 5.438626749e+00 6.752201143e-01
523 1 5.124294088e+00 5.084005479e+00 2.062539902e-01
524 1 5.384889481e+00 5.813070392e+00 2.730049029e-01
525 1 6.736785600e+00 5.696669610e+00 3.807506057e-01
526 1 6.687178323e+00 5.354444661e+00 9.141695408e-01
527 1 6.127402517e+00 5.755682740e+00 2.352773955e-01
528 1 6.496791052e+00 5.897862361e+00 7.912804269e-01
529 1 7.498586552e+00 5.848763750e+00 7.143491359e-02
530 1 7.727432877e+00 5.350892279e+00 6.932166279e-01
531 1 7.776123015e+00 5.495913881e+00 8.704444455e-01
532 1 7.712727218e+00 5.042679233e+00 9.758973122e-02
533 1 8.770626482e+00 5.328450408e+00 5.191672903e-01
534 1 8.440183533e+00 5.015100234e+00 2.031349807e-01
535 1 8.137622889e+00 5.076915229e+00 9.111061733e-01
536 1 8.461350115e+00 5.844916674e+00 8.879679346e-01
537 1 9.214354220e+00 5.139230991e+00 1.815263918e-01
538 1 9.097237904e+00 5.033950154e+00 7.137124928e-01
539 1 9.018002862e+00 5.967995176e+00 8.266580534e-01
540 1 9.877992992e+00 5.733793499e+00 2.757008985e-01
541 1 1.098570190e+01 5.738379922e+00 9.388427471e-01
542 1 1.005686711e+01 5.854379524e+00 1.241275218e-02
543 1 1.072865625e+01 5.901954508e+00 4.123418231e-01
544 1 1.093059099e+01 5.218762452e+00 2.659535151e-01
545 1 1.106302137e+01 5.226930564e+00 3.980861497e-02
546 1 1.152472209e+01 5.738583148e+00 8.224204489e-01
547 1 1.120990508e+01 5.570978025e+00 5.600162974e-01
548 1 1.149173300e+01 5.985752595e+00 8.704354863e-01
549 1 1.277435760e+01 5.517525639e+00 9.024885231e-01
550 1 1.241985364e+01 5.121365676e+00 7.289193955e-01
551 1 1.254123957e+01 5.213095386e+00 9.126683593e-01
552 1 1.242908629e+01 5.213687274e+00 2.974060369e-01
553 1 1.367237961e+01 5.758009472e+00 4.399502410e-01
554 1 1.349558503e+01 5.160457233e+00 8.271335090e-01
555 1 1.375554383e+01 5.510416203e+00 5.035872752e-01